LAMMPS data file from restart file: timestep = 0, procs = 1

2916 atoms

1 atom types

0.0 51.4740 xlo xhi
0.0 51.4740 ylo yhi
0.0 51.4740 zlo zhi

Masses

1 39.948

Atoms

1 1 6.6710330000000004e+00 6.5433130000000004e+00 4.6949694000000008e+01 0 0 -1
2 1 1.0657410000000000e+00 4.8139677000000006e+01 4.8883613000000004e+01 0 -1 -1
3 1 4.9689877000000003e+01 6.3205400000000000e-01 4.6167999999999996e+00 -1 0 0
4 1 4.4126303000000007e+01 4.5649941000000005e+01 3.6564600000000000e+00 -1 -1 0
5 1 4.9640720999999999e+01 4.6693467000000005e+01 8.2667269999999995e+00 -1 -1 0
6 1 2.1125379999999998e+00 4.6744441000000002e+01 6.7573860000000003e+00 0 -1 0
7 1 4.6911908000000004e+01 4.8270706000000004e+01 5.5525549999999999e+00 -1 -1 0
8 1 5.8666390000000002e+00 6.7440590000000000e+00 1.8641639999999999e+00 0 0 0
9 1 5.2152740000000000e+00 5.3882269999999997e+00 6.1927009999999996e+00 0 0 0
10 1 4.8021105000000006e+01 4.6502795000000006e+01 1.9462969999999999e+00 -1 -1 0
11 1 4.1961320000000004e+00 2.1789179999999999e+00 5.0849388000000005e+01 0 0 -1
12 1 5.1068150000000003e+01 7.0775759999999996e+00 4.8818850000000005e+01 -1 0 -1
13 1 4.6951023000000006e+01 5.0067644000000001e+01 2.3862719999999999e+00 -1 -1 0
14 1 5.0389600000000002e+01 2.4155769999999999e+00 8.3779160000000008e+00 -1 0 0
15 1 4.3277469000000004e+01 4.9604717000000008e+01 4.0580699999999998e+00 -1 -1 0
16 1 4.5461904000000004e+01 3.1855240000000000e+00 6.7233000000000001e-02 -1 0 0
17 1 5.0385099000000004e+01 5.0436554000000001e+01 1.4075730000000000e+00 -1 -1 0
18 1 1.5404480000000000e+00 5.0982836000000006e+01 3.6041770000000000e+00 0 -1 0
19 1 4.8342386000000005e+01 4.4720284000000007e+01 5.0061099999999996e+00 -1 -1 0
20 1 2.4926599999999999e-01 4.3589279000000005e+01 7.5660369999999997e+00 0 -1 0
21 1 2.4919870000000000e+00 6.8766460000000000e+00 3.4727000000000001e+00 0 0 0
22 1 4.3459588000000004e+01 4.4892942000000005e+01 4.5359482000000000e+01 -1 -1 -1
23 1 4.6701298000000008e+01 6.1421270000000003e+00 2.8757609999999998e+00 -1 0 0
24 1 6.1802359999999998e+00 4.7126536999999999e+01 5.4272929999999997e+00 0 -1 0
25 1 4.3640299999999999e-01 5.0107441000000001e+01 7.3733350000000000e+00 0 -1 0
26 1 5.0553094000000002e+01 4.8164385000000003e+01 4.4036989999999996e+00 -1 -1 0
27 1 3.3111880000000000e+00 4.7855954000000004e+01 3.1592709999999999e+00 0 -1 0
28 1 5.0710599999999995e-01 4.6975205000000003e+01 9.3384000000000000e-01 0 -1 0
29 1 4.8737371000000003e+01 4.8288871000000000e+01 4.9746953000000005e+01 -1 -1 -1
30 1 5.5619110000000003e+00 4.4215275000000005e+01 4.6772896000000003e+01 0 -1 -1
31 1 3.0614650000000001e+00 2.7492770000000002e+00 6.6932549999999997e+00 0 0 0
32 1 5.0094568000000002e+01 7.0526369999999998e+00 4.6450279999999999e+00 -1 0 0
33 1 7.5241530000000001e+00 2.6846749999999999e+00 1.6093320000000000e+00 0 0 0
34 1 4.5596961000000007e+01 1.3727240000000001e+00 4.7749886000000004e+01 -1 0 -1
35 1 8.3026000000000000e-01 5.3308710000000001e+00 4.5397614000000004e+01 0 0 -1
36 1 2.7013389999999999e+00 4.9868390000000005e+01 1.2005600000000000e-01 0 -1 0
37 1 4.3586510000000004e+01 6.2507890000000002e+00 8.8933200000000001e-01 -1 0 0
38 1 4.3401947000000007e+01 5.1109819999999999e+01 6.8638600000000005e-01 -1 -1 0
39 1 5.2514000000000003e+00 5.1135031000000005e+01 2.1591779999999998e+00 0 -1 0
40 1 4.7584103000000006e+01 3.3056359999999998e+00 5.6649719999999997e+00 -1 0 0
41 1 4.9526179000000006e+01 2.3202970000000001e+00 4.6012947000000004e+01 -1 0 -1
42 1 4.5590438000000006e+01 4.8158753000000004e+01 4.4117747000000008e+01 -1 -1 -1
43 1 4.5683222000000001e+01 4.4468267000000004e+01 5.1385361000000003e+01 -1 -1 -1
44 1 4.6996714000000004e+01 5.1284396000000001e+01 5.0648546000000003e+01 -1 -1 -1
45 1 4.7509534000000002e+01 4.9848563000000006e+01 4.6753579000000002e+01 -1 -1 -1
46 1 4.9690558000000003e+01 4.6627475000000004e+01 4.6547625000000004e+01 -1 -1 -1
47 1 5.0744028000000000e+01 4.3207820000000005e+01 4.5767879000000008e+01 -1 -1 -1
48 1 6.6573700000000002e-01 1.8717340000000000e+00 5.4160500000000000e-01 0 0 0
49 1 4.7380144000000001e+01 6.3093539999999999e+00 5.0400750000000002e+01 -1 0 -1
50 1 7.7363860000000004e+00 1.8452649999999999e+00 4.9499378000000007e+01 0 0 -1
51 1 4.4573113000000006e+01 5.2134250000000000e+00 4.8535261000000006e+01 -1 0 -1
52 1 3.7769990000000000e+00 2.9244800000000000e+00 2.9061029999999999e+00 0 0 0
53 1 4.4187989000000002e+01 4.9622052000000004e+01 4.8649622000000008e+01 -1 -1 -1
54 1 4.3657215000000008e+01 5.1363734000000008e+01 4.4558199000000002e+01 -1 -1 -1
55 1 6.4295309999999999e+00 5.1921730000000004e+00 5.0197928000000005e+01 0 0 -1
56 1 3.1207600000000002e-01 3.6370680000000002e+00 4.3057660000000002e+00 0 0 0
57 1 4.7269310000000004e+00 4.3144580000000005e+01 5.0099124000000003e+01 0 -1 -1
58 1 4.9734380000000002e+01 4.4548790000000004e+01 4.9403789000000003e+01 -1 -1 -1
59 1 4.9641871000000002e+01 6.2209360000000000e+00 4.3066149000000003e+01 -1 0 -1
60 1 5.6289850000000001e+00 1.2220640000000000e+00 4.3449684000000005e+01 0 0 -1
61 1 4.3663040000000004e+00 4.4294912000000004e+01 2.4637020000000001e+00 0 -1 0
62 1 6.3690509999999998e+00 2.1402000000000001e-02 4.6796626000000003e+01 0 0 -1
63 1 4.3228094000000006e+01 4.3069075000000005e+01 4.8893450000000001e+01 -1 -1 -1
64 1 6.3950709999999997e+00 8.2234639999999999e+00 4.3447842000000001e+01 0 0 -1
65 1 3.1731099999999999e+00 6.7470330000000001e+00 4.7729619000000000e+01 0 0 -1
66 1 8.5587180000000007e+00 5.6433030000000004e+00 4.7068070000000004e+00 0 0 0
67 1 3.7795760000000000e+00 4.6358810000000005e+01 5.0840917000000005e+01 0 -1 -1
68 1 3.8206199999999999e+00 5.0271372000000000e+01 6.2353139999999998e+00 0 -1 0
69 1 4.2570680000000003e+00 4.7839697000000001e+01 4.7585051000000007e+01 0 -1 -1
70 1 1.9234869999999999e+00 5.9670259999999997e+00 7.6272409999999997e+00 0 0 0
71 1 4.6321178000000003e+01 3.3316409999999999e+00 4.3496796000000003e+01 -1 0 -1
72 1 4.9361347000000002e+01 2.8974080000000000e+00 4.9669081000000006e+01 -1 0 -1
73 1 7.3225819999999997e+00 4.6751923000000005e+01 4.9478030000000004e+01 0 -1 -1
74 1 2.3187650000000000e+00 1.7744290000000000e+00 4.4677750000000003e+01 0 0 -1
75 1 4.6291602000000005e+01 4.6397842000000004e+01 4.8006738000000006e+01 -1 -1 -1
76 1 4.8255448000000001e+01 5.5421449999999997e+00 4.6466918000000007e+01 -1 0 -1
77 1 8.8556999999999997e-02 5.0056831000000003e+01 4.5266755000000003e+01 0 -1 -1
78 1 5.0865404000000005e+01 5.1209911000000005e+01 4.9455113000000004e+01 -1 -1 -1
79 1 8.1623199999999994e+00 4.4162317000000002e+01 7.9620999999999997e-01 0 -1 0
80 1 8.4032339999999994e+00 3.3502800000000001e+00 4.5907369000000003e+01 0 0 -1
81 1 6.1918270000000000e+00 5.0067075000000003e+01 5.0310912999999999e+01 0 -1 -1
82 1 7.2331200000000004e+00 4.9414619000000002e+01 7.9870229999999998e+00 0 -1 0
83 1 1.0425629999999999e+00 4.3321073000000005e+01 4.9438999999999997e-02 0 -1 0
84 1 3.0131030000000001e+00 5.6482840000000003e+00 5.1215451000000002e+01 0 0 -1
85 1 6.8864900000000002e+00 4.3314693000000005e+01 4.8290610000000003e+00 0 -1 0
86 1 5.0623750000000003e+00 4.8645199999999997e+00 4.4115150000000000e+01 0 0 -1
87 1 5.0928927000000002e+01 5.3446379999999998e+00 1.1837830000000000e+00 -1 0 0
88 1 2.6921450000000000e+00 4.3188358000000008e+01 4.4776195000000001e+01 0 -1 -1
89 1 2.7978130000000001e+00 1.1487500000000000e-01 4.8136624000000005e+01 0 0 -1
90 1 7.6226839999999996e+00 4.8297267000000005e+01 4.5943161000000003e+01 0 -1 -1
91 1 1.5074479999999999e+00 3.3374229999999998e+00 4.8232468000000004e+01 0 0 -1
92 1 6.6730770000000001e+00 1.0654619999999999e+00 5.2578950000000004e+00 0 0 0
93 1 4.4755055000000006e+01 4.8725299999999999e-01 6.9179940000000002e+00 -1 0 0
94 1 5.6289160000000003e+00 4.6245408000000005e+01 4.3748774000000004e+01 0 -1 -1
95 1 4.8479450000000000e+01 2.6218400000000002e+00 1.9210820000000000e+00 -1 0 0
96 1 4.4966526999999999e+01 4.7774362000000004e+01 4.9286700000000000e-01 -1 -1 0
97 1 3.7025030000000001e+00 4.3527568000000002e+01 6.3429500000000001e+00 0 -1 0
98 1 8.2906069999999996e+00 3.3928310000000002e+00 7.8144710000000002e+00 0 0 0
99 1 6.7968289999999998e+00 4.7639868000000007e+01 1.4164969999999999e+00 0 -1 0
100 1 2.0249730000000001e+00 4.4802668000000004e+01 4.8184618000000000e+01 0 -1 -1
101 1 4.3475607000000004e+01 4.6134525000000004e+01 7.5982370000000001e+00 -1 -1 0
102 1 4.8647220000000004e+00 3.4164610000000000e+00 4.7528737000000007e+01 0 0 -1
103 1 1.4878830000000001e+00 4.6801820000000006e+01 4.4889048000000003e+01 0 -1 -1
104 1 4.0899239999999999e+00 4.9465496000000002e+01 4.3951705000000004e+01 0 -1 -1
105 1 4.8982020000000006e+01 8.5787969999999998e+00 1.4846269999999999e+00 -1 0 0
106 1 4.8029812000000007e+01 5.1115290999999999e+01 8.4644309999999994e+00 -1 -1 0
107 1 1.0485610000000001e+00 4.4459377000000003e+01 3.8534090000000001e+00 0 -1 0
108 1 4.4822781000000006e+01 1.4935630000000000e+00 3.4774479999999999e+00 -1 0 0
973 1 6.6710330000000004e+00 6.5433130000000004e+00 1.2633694000000002e+01 0 0 0
974 1 1.0657410000000000e+00 4.8139677000000006e+01 1.4567613000000001e+01 0 -1 0
975 1 4.9689877000000003e+01 6.3205400000000000e-01 2.1774799999999999e+01 -1 0 0
976 1 4.4126303000000007e+01 4.5649941000000005e+01 2.0814460000000000e+01 -1 -1 0
977 1 4.9640720999999999e+01 4.6693467000000005e+01 2.5424727000000001e+01 -1 -1 0
978 1 2.1125379999999998e+00 4.6744441000000002e+01 2.3915386000000002e+01 0 -1 0
979 1 4.6911908000000004e+01 4.8270706000000004e+01 2.2710554999999999e+01 -1 -1 0
980 1 5.8666390000000002e+00 6.7440590000000000e+00 1.9022164000000000e+01 0 0 0
981 1 5.2152740000000000e+00 5.3882269999999997e+00 2.3350701000000001e+01 0 0 0
982 1 4.8021105000000006e+01 4.6502795000000006e+01 1.9104297000000003e+01 -1 -1 0
983 1 4.1961320000000004e+00 2.1789179999999999e+00 1.6533388000000002e+01 0 0 0
984 1 5.1068150000000003e+01 7.0775759999999996e+00 1.4502850000000002e+01 -1 0 0
985 1 4.6951023000000006e+01 5.0067644000000001e+01 1.9544271999999999e+01 -1 -1 0
986 1 5.0389600000000002e+01 2.4155769999999999e+00 2.5535916000000000e+01 -1 0 0
987 1 4.3277469000000004e+01 4.9604717000000008e+01 2.1216070000000002e+01 -1 -1 0
988 1 4.5461904000000004e+01 3.1855240000000000e+00 1.7225233000000003e+01 -1 0 0
989 1 5.0385099000000004e+01 5.0436554000000001e+01 1.8565573000000001e+01 -1 -1 0
990 1 1.5404480000000000e+00 5.0982836000000006e+01 2.0762177000000001e+01 0 -1 0
991 1 4.8342386000000005e+01 4.4720284000000007e+01 2.2164110000000001e+01 -1 -1 0
992 1 2.4926599999999999e-01 4.3589279000000005e+01 2.4724037000000003e+01 0 -1 0
993 1 2.4919870000000000e+00 6.8766460000000000e+00 2.0630700000000001e+01 0 0 0
994 1 4.3459588000000004e+01 4.4892942000000005e+01 1.1043482000000001e+01 -1 -1 0
995 1 4.6701298000000008e+01 6.1421270000000003e+00 2.0033761000000002e+01 -1 0 0
996 1 6.1802359999999998e+00 4.7126536999999999e+01 2.2585293000000000e+01 0 -1 0
997 1 4.3640299999999999e-01 5.0107441000000001e+01 2.4531335000000002e+01 0 -1 0
998 1 5.0553094000000002e+01 4.8164385000000003e+01 2.1561699000000001e+01 -1 -1 0
999 1 3.3111880000000000e+00 4.7855954000000004e+01 2.0317271000000002e+01 0 -1 0
1000 1 5.0710599999999995e-01 4.6975205000000003e+01 1.8091840000000001e+01 0 -1 0
1001 1 4.8737371000000003e+01 4.8288871000000000e+01 1.5430953000000001e+01 -1 -1 0
1002 1 5.5619110000000003e+00 4.4215275000000005e+01 1.2456896000000000e+01 0 -1 0
1003 1 3.0614650000000001e+00 2.7492770000000002e+00 2.3851255000000002e+01 0 0 0
1004 1 5.0094568000000002e+01 7.0526369999999998e+00 2.1803028000000001e+01 -1 0 0
1005 1 7.5241530000000001e+00 2.6846749999999999e+00 1.8767332000000000e+01 0 0 0
1006 1 4.5596961000000007e+01 1.3727240000000001e+00 1.3433886000000001e+01 -1 0 0
1007 1 8.3026000000000000e-01 5.3308710000000001e+00 1.1081614000000002e+01 0 0 0
1008 1 2.7013389999999999e+00 4.9868390000000005e+01 1.7278056000000003e+01 0 -1 0
1009 1 4.3586510000000004e+01 6.2507890000000002e+00 1.8047332000000001e+01 -1 0 0
1010 1 4.3401947000000007e+01 5.1109819999999999e+01 1.7844386000000000e+01 -1 -1 0
1011 1 5.2514000000000003e+00 5.1135031000000005e+01 1.9317178000000002e+01 0 -1 0
1012 1 4.7584103000000006e+01 3.3056359999999998e+00 2.2822972000000000e+01 -1 0 0
1013 1 4.9526179000000006e+01 2.3202970000000001e+00 1.1696947000000002e+01 -1 0 0
1014 1 4.5590438000000006e+01 4.8158753000000004e+01 9.8017470000000024e+00 -1 -1 0
1015 1 4.5683222000000001e+01 4.4468267000000004e+01 1.7069361000000001e+01 -1 -1 0
1016 1 4.6996714000000004e+01 5.1284396000000001e+01 1.6332546000000001e+01 -1 -1 0
1017 1 4.7509534000000002e+01 4.9848563000000006e+01 1.2437579000000001e+01 -1 -1 0
1018 1 4.9690558000000003e+01 4.6627475000000004e+01 1.2231625000000001e+01 -1 -1 0
1019 1 5.0744028000000000e+01 4.3207820000000005e+01 1.1451879000000002e+01 -1 -1 0
1020 1 6.6573700000000002e-01 1.8717340000000000e+00 1.7699605000000002e+01 0 0 0
1021 1 4.7380144000000001e+01 6.3093539999999999e+00 1.6084750000000000e+01 -1 0 0
1022 1 7.7363860000000004e+00 1.8452649999999999e+00 1.5183378000000001e+01 0 0 0
1023 1 4.4573113000000006e+01 5.2134250000000000e+00 1.4219261000000001e+01 -1 0 0
1024 1 3.7769990000000000e+00 2.9244800000000000e+00 2.0064103000000003e+01 0 0 0
1025 1 4.4187989000000002e+01 4.9622052000000004e+01 1.4333622000000002e+01 -1 -1 0
1026 1 4.3657215000000008e+01 5.1363734000000008e+01 1.0242199000000001e+01 -1 -1 0
1027 1 6.4295309999999999e+00 5.1921730000000004e+00 1.5881928000000002e+01 0 0 0
1028 1 3.1207600000000002e-01 3.6370680000000002e+00 2.1463766000000000e+01 0 0 0
1029 1 4.7269310000000004e+00 4.3144580000000005e+01 1.5783124000000001e+01 0 -1 0
1030 1 4.9734380000000002e+01 4.4548790000000004e+01 1.5087789000000001e+01 -1 -1 0
1031 1 4.9641871000000002e+01 6.2209360000000000e+00 8.7501490000000004e+00 -1 0 0
1032 1 5.6289850000000001e+00 1.2220640000000000e+00 9.1336840000000006e+00 0 0 0
1033 1 4.3663040000000004e+00 4.4294912000000004e+01 1.9621702000000003e+01 0 -1 0
1034 1 6.3690509999999998e+00 2.1402000000000001e-02 1.2480626000000001e+01 0 0 0
1035 1 4.3228094000000006e+01 4.3069075000000005e+01 1.4577450000000001e+01 -1 -1 0
1036 1 6.3950709999999997e+00 8.2234639999999999e+00 9.1318420000000007e+00 0 0 0
1037 1 3.1731099999999999e+00 6.7470330000000001e+00 1.3413619000000001e+01 0 0 0
1038 1 8.5587180000000007e+00 5.6433030000000004e+00 2.1864807000000003e+01 0 0 0
1039 1 3.7795760000000000e+00 4.6358810000000005e+01 1.6524917000000002e+01 0 -1 0
1040 1 3.8206199999999999e+00 5.0271372000000000e+01 2.3393314000000000e+01 0 -1 0
1041 1 4.2570680000000003e+00 4.7839697000000001e+01 1.3269051000000001e+01 0 -1 0
1042 1 1.9234869999999999e+00 5.9670259999999997e+00 2.4785240999999999e+01 0 0 0
1043 1 4.6321178000000003e+01 3.3316409999999999e+00 9.1807960000000008e+00 -1 0 0
1044 1 4.9361347000000002e+01 2.8974080000000000e+00 1.5353081000000001e+01 -1 0 0
1045 1 7.3225819999999997e+00 4.6751923000000005e+01 1.5162030000000001e+01 0 -1 0
1046 1 2.3187650000000000e+00 1.7744290000000000e+00 1.0361750000000001e+01 0 0 0
1047 1 4.6291602000000005e+01 4.6397842000000004e+01 1.3690738000000001e+01 -1 -1 0
1048 1 4.8255448000000001e+01 5.5421449999999997e+00 1.2150918000000001e+01 -1 0 0
1049 1 8.8556999999999997e-02 5.0056831000000003e+01 1.0950755000000001e+01 0 -1 0
1050 1 5.0865404000000005e+01 5.1209911000000005e+01 1.5139113000000002e+01 -1 -1 0
1051 1 8.1623199999999994e+00 4.4162317000000002e+01 1.7954210000000000e+01 0 -1 0
1052 1 8.4032339999999994e+00 3.3502800000000001e+00 1.1591369000000000e+01 0 0 0
1053 1 6.1918270000000000e+00 5.0067075000000003e+01 1.5994913000000000e+01 0 -1 0
1054 1 7.2331200000000004e+00 4.9414619000000002e+01 2.5145023000000002e+01 0 -1 0
1055 1 1.0425629999999999e+00 4.3321073000000005e+01 1.7207439000000001e+01 0 -1 0
1056 1 3.0131030000000001e+00 5.6482840000000003e+00 1.6899451000000003e+01 0 0 0
1057 1 6.8864900000000002e+00 4.3314693000000005e+01 2.1987061000000001e+01 0 -1 0
1058 1 5.0623750000000003e+00 4.8645199999999997e+00 9.7991500000000009e+00 0 0 0
1059 1 5.0928927000000002e+01 5.3446379999999998e+00 1.8341783000000000e+01 -1 0 0
1060 1 2.6921450000000000e+00 4.3188358000000008e+01 1.0460195000000002e+01 0 -1 0
1061 1 2.7978130000000001e+00 1.1487500000000000e-01 1.3820624000000002e+01 0 0 0
1062 1 7.6226839999999996e+00 4.8297267000000005e+01 1.1627161000000001e+01 0 -1 0
1063 1 1.5074479999999999e+00 3.3374229999999998e+00 1.3916468000000002e+01 0 0 0
1064 1 6.6730770000000001e+00 1.0654619999999999e+00 2.2415895000000003e+01 0 0 0
1065 1 4.4755055000000006e+01 4.8725299999999999e-01 2.4075994000000001e+01 -1 0 0
1066 1 5.6289160000000003e+00 4.6245408000000005e+01 9.4327740000000020e+00 0 -1 0
1067 1 4.8479450000000000e+01 2.6218400000000002e+00 1.9079082000000000e+01 -1 0 0
1068 1 4.4966526999999999e+01 4.7774362000000004e+01 1.7650867000000002e+01 -1 -1 0
1069 1 3.7025030000000001e+00 4.3527568000000002e+01 2.3500950000000003e+01 0 -1 0
1070 1 8.2906069999999996e+00 3.3928310000000002e+00 2.4972471000000002e+01 0 0 0
1071 1 6.7968289999999998e+00 4.7639868000000007e+01 1.8574497000000001e+01 0 -1 0
1072 1 2.0249730000000001e+00 4.4802668000000004e+01 1.3868618000000001e+01 0 -1 0
1073 1 4.3475607000000004e+01 4.6134525000000004e+01 2.4756237000000002e+01 -1 -1 0
1074 1 4.8647220000000004e+00 3.4164610000000000e+00 1.3212737000000001e+01 0 0 0
1075 1 1.4878830000000001e+00 4.6801820000000006e+01 1.0573048000000000e+01 0 -1 0
1076 1 4.0899239999999999e+00 4.9465496000000002e+01 9.6357050000000015e+00 0 -1 0
1077 1 4.8982020000000006e+01 8.5787969999999998e+00 1.8642627000000001e+01 -1 0 0
1078 1 4.8029812000000007e+01 5.1115290999999999e+01 2.5622430999999999e+01 -1 -1 0
1079 1 1.0485610000000001e+00 4.4459377000000003e+01 2.1011409000000000e+01 0 -1 0
1080 1 4.4822781000000006e+01 1.4935630000000000e+00 2.0635448000000000e+01 -1 0 0
1945 1 6.6710330000000004e+00 6.5433130000000004e+00 2.9791694000000003e+01 0 0 0
1946 1 1.0657410000000000e+00 4.8139677000000006e+01 3.1725613000000003e+01 0 -1 0
1947 1 4.9689877000000003e+01 6.3205400000000000e-01 3.8932800000000000e+01 -1 0 0
1948 1 4.4126303000000007e+01 4.5649941000000005e+01 3.7972460000000005e+01 -1 -1 0
1949 1 4.9640720999999999e+01 4.6693467000000005e+01 4.2582727000000006e+01 -1 -1 0
1950 1 2.1125379999999998e+00 4.6744441000000002e+01 4.1073385999999999e+01 0 -1 0
1951 1 4.6911908000000004e+01 4.8270706000000004e+01 3.9868555000000001e+01 -1 -1 0
1952 1 5.8666390000000002e+00 6.7440590000000000e+00 3.6180164000000005e+01 0 0 0
1953 1 5.2152740000000000e+00 5.3882269999999997e+00 4.0508701000000002e+01 0 0 0
1954 1 4.8021105000000006e+01 4.6502795000000006e+01 3.6262297000000004e+01 -1 -1 0
1955 1 4.1961320000000004e+00 2.1789179999999999e+00 3.3691388000000003e+01 0 0 0
1956 1 5.1068150000000003e+01 7.0775759999999996e+00 3.1660850000000003e+01 -1 0 0
1957 1 4.6951023000000006e+01 5.0067644000000001e+01 3.6702272000000001e+01 -1 -1 0
1958 1 5.0389600000000002e+01 2.4155769999999999e+00 4.2693916000000002e+01 -1 0 0
1959 1 4.3277469000000004e+01 4.9604717000000008e+01 3.8374070000000003e+01 -1 -1 0
1960 1 4.5461904000000004e+01 3.1855240000000000e+00 3.4383233000000004e+01 -1 0 0
1961 1 5.0385099000000004e+01 5.0436554000000001e+01 3.5723573000000002e+01 -1 -1 0
1962 1 1.5404480000000000e+00 5.0982836000000006e+01 3.7920177000000002e+01 0 -1 0
1963 1 4.8342386000000005e+01 4.4720284000000007e+01 3.9322110000000002e+01 -1 -1 0
1964 1 2.4926599999999999e-01 4.3589279000000005e+01 4.1882037000000004e+01 0 -1 0
1965 1 2.4919870000000000e+00 6.8766460000000000e+00 3.7788700000000006e+01 0 0 0
1966 1 4.3459588000000004e+01 4.4892942000000005e+01 2.8201482000000002e+01 -1 -1 0
1967 1 4.6701298000000008e+01 6.1421270000000003e+00 3.7191761000000000e+01 -1 0 0
1968 1 6.1802359999999998e+00 4.7126536999999999e+01 3.9743293000000001e+01 0 -1 0
1969 1 4.3640299999999999e-01 5.0107441000000001e+01 4.1689335000000000e+01 0 -1 0
1970 1 5.0553094000000002e+01 4.8164385000000003e+01 3.8719699000000006e+01 -1 -1 0
1971 1 3.3111880000000000e+00 4.7855954000000004e+01 3.7475270999999999e+01 0 -1 0
1972 1 5.0710599999999995e-01 4.6975205000000003e+01 3.5249840000000006e+01 0 -1 0
1973 1 4.8737371000000003e+01 4.8288871000000000e+01 3.2588953000000004e+01 -1 -1 0
1974 1 5.5619110000000003e+00 4.4215275000000005e+01 2.9614896000000002e+01 0 -1 0
1975 1 3.0614650000000001e+00 2.7492770000000002e+00 4.1009255000000003e+01 0 0 0
1976 1 5.0094568000000002e+01 7.0526369999999998e+00 3.8961027999999999e+01 -1 0 0
1977 1 7.5241530000000001e+00 2.6846749999999999e+00 3.5925332000000004e+01 0 0 0
1978 1 4.5596961000000007e+01 1.3727240000000001e+00 3.0591886000000002e+01 -1 0 0
1979 1 8.3026000000000000e-01 5.3308710000000001e+00 2.8239614000000003e+01 0 0 0
1980 1 2.7013389999999999e+00 4.9868390000000005e+01 3.4436056000000001e+01 0 -1 0
1981 1 4.3586510000000004e+01 6.2507890000000002e+00 3.5205332000000006e+01 -1 0 0
1982 1 4.3401947000000007e+01 5.1109819999999999e+01 3.5002386000000001e+01 -1 -1 0
1983 1 5.2514000000000003e+00 5.1135031000000005e+01 3.6475178000000000e+01 0 -1 0
1984 1 4.7584103000000006e+01 3.3056359999999998e+00 3.9980972000000001e+01 -1 0 0
1985 1 4.9526179000000006e+01 2.3202970000000001e+00 2.8854947000000003e+01 -1 0 0
1986 1 4.5590438000000006e+01 4.8158753000000004e+01 2.6959747000000004e+01 -1 -1 0
1987 1 4.5683222000000001e+01 4.4468267000000004e+01 3.4227361000000002e+01 -1 -1 0
1988 1 4.6996714000000004e+01 5.1284396000000001e+01 3.3490546000000002e+01 -1 -1 0
1989 1 4.7509534000000002e+01 4.9848563000000006e+01 2.9595579000000001e+01 -1 -1 0
1990 1 4.9690558000000003e+01 4.6627475000000004e+01 2.9389625000000002e+01 -1 -1 0
1991 1 5.0744028000000000e+01 4.3207820000000005e+01 2.8609879000000003e+01 -1 -1 0
1992 1 6.6573700000000002e-01 1.8717340000000000e+00 3.4857605000000000e+01 0 0 0
1993 1 4.7380144000000001e+01 6.3093539999999999e+00 3.3242750000000001e+01 -1 0 0
1994 1 7.7363860000000004e+00 1.8452649999999999e+00 3.2341378000000006e+01 0 0 0
1995 1 4.4573113000000006e+01 5.2134250000000000e+00 3.1377261000000004e+01 -1 0 0
1996 1 3.7769990000000000e+00 2.9244800000000000e+00 3.7222103000000004e+01 0 0 0
1997 1 4.4187989000000002e+01 4.9622052000000004e+01 3.1491622000000003e+01 -1 -1 0
1998 1 4.3657215000000008e+01 5.1363734000000008e+01 2.7400199000000001e+01 -1 -1 0
1999 1 6.4295309999999999e+00 5.1921730000000004e+00 3.3039928000000003e+01 0 0 0
2000 1 3.1207600000000002e-01 3.6370680000000002e+00 3.8621766000000001e+01 0 0 0
2001 1 4.7269310000000004e+00 4.3144580000000005e+01 3.2941124000000002e+01 0 -1 0
2002 1 4.9734380000000002e+01 4.4548790000000004e+01 3.2245789000000002e+01 -1 -1 0
2003 1 4.9641871000000002e+01 6.2209360000000000e+00 2.5908149000000002e+01 -1 0 0
2004 1 5.6289850000000001e+00 1.2220640000000000e+00 2.6291684000000004e+01 0 0 0
2005 1 4.3663040000000004e+00 4.4294912000000004e+01 3.6779702000000000e+01 0 -1 0
2006 1 6.3690509999999998e+00 2.1402000000000001e-02 2.9638626000000002e+01 0 0 0
2007 1 4.3228094000000006e+01 4.3069075000000005e+01 3.1735450000000000e+01 -1 -1 0
2008 1 6.3950709999999997e+00 8.2234639999999999e+00 2.6289842000000000e+01 0 0 0
2009 1 3.1731099999999999e+00 6.7470330000000001e+00 3.0571619000000002e+01 0 0 0
2010 1 8.5587180000000007e+00 5.6433030000000004e+00 3.9022807000000000e+01 0 0 0
2011 1 3.7795760000000000e+00 4.6358810000000005e+01 3.3682917000000003e+01 0 -1 0
2012 1 3.8206199999999999e+00 5.0271372000000000e+01 4.0551314000000005e+01 0 -1 0
2013 1 4.2570680000000003e+00 4.7839697000000001e+01 3.0427051000000002e+01 0 -1 0
2014 1 1.9234869999999999e+00 5.9670259999999997e+00 4.1943241000000000e+01 0 0 0
2015 1 4.6321178000000003e+01 3.3316409999999999e+00 2.6338796000000002e+01 -1 0 0
2016 1 4.9361347000000002e+01 2.8974080000000000e+00 3.2511081000000004e+01 -1 0 0
2017 1 7.3225819999999997e+00 4.6751923000000005e+01 3.2320030000000003e+01 0 -1 0
2018 1 2.3187650000000000e+00 1.7744290000000000e+00 2.7519750000000002e+01 0 0 0
2019 1 4.6291602000000005e+01 4.6397842000000004e+01 3.0848738000000004e+01 -1 -1 0
2020 1 4.8255448000000001e+01 5.5421449999999997e+00 2.9308918000000002e+01 -1 0 0
2021 1 8.8556999999999997e-02 5.0056831000000003e+01 2.8108755000000002e+01 0 -1 0
2022 1 5.0865404000000005e+01 5.1209911000000005e+01 3.2297113000000003e+01 -1 -1 0
2023 1 8.1623199999999994e+00 4.4162317000000002e+01 3.5112210000000005e+01 0 -1 0
2024 1 8.4032339999999994e+00 3.3502800000000001e+00 2.8749369000000002e+01 0 0 0
2025 1 6.1918270000000000e+00 5.0067075000000003e+01 3.3152912999999998e+01 0 -1 0
2026 1 7.2331200000000004e+00 4.9414619000000002e+01 4.2303023000000003e+01 0 -1 0
2027 1 1.0425629999999999e+00 4.3321073000000005e+01 3.4365439000000002e+01 0 -1 0
2028 1 3.0131030000000001e+00 5.6482840000000003e+00 3.4057451000000000e+01 0 0 0
2029 1 6.8864900000000002e+00 4.3314693000000005e+01 3.9145061000000005e+01 0 -1 0
2030 1 5.0623750000000003e+00 4.8645199999999997e+00 2.6957150000000002e+01 0 0 0
2031 1 5.0928927000000002e+01 5.3446379999999998e+00 3.5499783000000001e+01 -1 0 0
2032 1 2.6921450000000000e+00 4.3188358000000008e+01 2.7618195000000004e+01 0 -1 0
2033 1 2.7978130000000001e+00 1.1487500000000000e-01 3.0978624000000003e+01 0 0 0
2034 1 7.6226839999999996e+00 4.8297267000000005e+01 2.8785161000000002e+01 0 -1 0
2035 1 1.5074479999999999e+00 3.3374229999999998e+00 3.1074468000000003e+01 0 0 0
2036 1 6.6730770000000001e+00 1.0654619999999999e+00 3.9573895000000000e+01 0 0 0
2037 1 4.4755055000000006e+01 4.8725299999999999e-01 4.1233994000000003e+01 -1 0 0
2038 1 5.6289160000000003e+00 4.6245408000000005e+01 2.6590774000000003e+01 0 -1 0
2039 1 4.8479450000000000e+01 2.6218400000000002e+00 3.6237082000000001e+01 -1 0 0
2040 1 4.4966526999999999e+01 4.7774362000000004e+01 3.4808866999999999e+01 -1 -1 0
2041 1 3.7025030000000001e+00 4.3527568000000002e+01 4.0658950000000004e+01 0 -1 0
2042 1 8.2906069999999996e+00 3.3928310000000002e+00 4.2130471000000000e+01 0 0 0
2043 1 6.7968289999999998e+00 4.7639868000000007e+01 3.5732497000000002e+01 0 -1 0
2044 1 2.0249730000000001e+00 4.4802668000000004e+01 3.1026618000000003e+01 0 -1 0
2045 1 4.3475607000000004e+01 4.6134525000000004e+01 4.1914237000000000e+01 -1 -1 0
2046 1 4.8647220000000004e+00 3.4164610000000000e+00 3.0370737000000002e+01 0 0 0
2047 1 1.4878830000000001e+00 4.6801820000000006e+01 2.7731048000000001e+01 0 -1 0
2048 1 4.0899239999999999e+00 4.9465496000000002e+01 2.6793705000000003e+01 0 -1 0
2049 1 4.8982020000000006e+01 8.5787969999999998e+00 3.5800627000000006e+01 -1 0 0
2050 1 4.8029812000000007e+01 5.1115290999999999e+01 4.2780431000000000e+01 -1 -1 0
2051 1 1.0485610000000001e+00 4.4459377000000003e+01 3.8169409000000002e+01 0 -1 0
2052 1 4.4822781000000006e+01 1.4935630000000000e+00 3.7793448000000005e+01 -1 0 0
325 1 6.6710330000000004e+00 2.3701313000000003e+01 4.6949694000000008e+01 0 0 -1
326 1 1.0657410000000000e+00 1.3823677000000002e+01 4.8883613000000004e+01 0 0 -1
327 1 4.9689877000000003e+01 1.7790054000000001e+01 4.6167999999999996e+00 -1 0 0
328 1 4.4126303000000007e+01 1.1333941000000001e+01 3.6564600000000000e+00 -1 0 0
329 1 4.9640720999999999e+01 1.2377467000000001e+01 8.2667269999999995e+00 -1 0 0
330 1 2.1125379999999998e+00 1.2428441000000001e+01 6.7573860000000003e+00 0 0 0
331 1 4.6911908000000004e+01 1.3954706000000002e+01 5.5525549999999999e+00 -1 0 0
332 1 5.8666390000000002e+00 2.3902059000000001e+01 1.8641639999999999e+00 0 0 0
333 1 5.2152740000000000e+00 2.2546227000000002e+01 6.1927009999999996e+00 0 0 0
334 1 4.8021105000000006e+01 1.2186795000000000e+01 1.9462969999999999e+00 -1 0 0
335 1 4.1961320000000004e+00 1.9336918000000001e+01 5.0849388000000005e+01 0 0 -1
336 1 5.1068150000000003e+01 2.4235576000000002e+01 4.8818850000000005e+01 -1 0 -1
337 1 4.6951023000000006e+01 1.5751644000000001e+01 2.3862719999999999e+00 -1 0 0
338 1 5.0389600000000002e+01 1.9573577000000000e+01 8.3779160000000008e+00 -1 0 0
339 1 4.3277469000000004e+01 1.5288717000000002e+01 4.0580699999999998e+00 -1 0 0
340 1 4.5461904000000004e+01 2.0343524000000002e+01 6.7233000000000001e-02 -1 0 0
341 1 5.0385099000000004e+01 1.6120554000000002e+01 1.4075730000000000e+00 -1 0 0
342 1 1.5404480000000000e+00 1.6666836000000000e+01 3.6041770000000000e+00 0 0 0
343 1 4.8342386000000005e+01 1.0404284000000001e+01 5.0061099999999996e+00 -1 0 0
344 1 2.4926599999999999e-01 9.2732790000000023e+00 7.5660369999999997e+00 0 0 0
345 1 2.4919870000000000e+00 2.4034646000000002e+01 3.4727000000000001e+00 0 0 0
346 1 4.3459588000000004e+01 1.0576942000000003e+01 4.5359482000000000e+01 -1 0 -1
347 1 4.6701298000000008e+01 2.3300127000000003e+01 2.8757609999999998e+00 -1 0 0
348 1 6.1802359999999998e+00 1.2810537000000000e+01 5.4272929999999997e+00 0 0 0
349 1 4.3640299999999999e-01 1.5791441000000001e+01 7.3733350000000000e+00 0 0 0
350 1 5.0553094000000002e+01 1.3848385000000000e+01 4.4036989999999996e+00 -1 0 0
351 1 3.3111880000000000e+00 1.3539954000000002e+01 3.1592709999999999e+00 0 0 0
352 1 5.0710599999999995e-01 1.2659205000000000e+01 9.3384000000000000e-01 0 0 0
353 1 4.8737371000000003e+01 1.3972871000000001e+01 4.9746953000000005e+01 -1 0 -1
354 1 5.5619110000000003e+00 9.8992750000000012e+00 4.6772896000000003e+01 0 0 -1
355 1 3.0614650000000001e+00 1.9907277000000001e+01 6.6932549999999997e+00 0 0 0
356 1 5.0094568000000002e+01 2.4210637000000002e+01 4.6450279999999999e+00 -1 0 0
357 1 7.5241530000000001e+00 1.9842675000000000e+01 1.6093320000000000e+00 0 0 0
358 1 4.5596961000000007e+01 1.8530724000000003e+01 4.7749886000000004e+01 -1 0 -1
359 1 8.3026000000000000e-01 2.2488871000000003e+01 4.5397614000000004e+01 0 0 -1
360 1 2.7013389999999999e+00 1.5552390000000001e+01 1.2005600000000000e-01 0 0 0
361 1 4.3586510000000004e+01 2.3408789000000002e+01 8.8933200000000001e-01 -1 0 0
362 1 4.3401947000000007e+01 1.6793820000000000e+01 6.8638600000000005e-01 -1 0 0